/*--------------------------------*- C++ -*----------------------------------*\
  =========                 |
  \\      /  F ield         | OpenFOAM: The Open Source CFD Toolbox
   \\    /   O peration     | Website:  https://openfoam.org
    \\  /    A nd           | Version:  13
     \\/     M anipulation  |
\*---------------------------------------------------------------------------*/
FoamFile
{
    format      ascii;
    class       volScalarField;
    location    "0";
    object      p;
}
// * * * * * * * * * * * * * * * * * * * * * * * * * * * * * * * * * * * * * //

dimensions      [1 -1 -2 0 0 0 0];

internalField   nonuniform List<scalar> 
521088
(
154779
151873
151811
151151
150847
150071
149857
149167
148793
148072
147762
147146
146409
145234
144799
143622
142866
141592
141054
139695
139309
137337
137141
132395
152632
150501
150883
150272
150020
149326
149163
148470
148107
147447
147226
146473
145842
144771
144358
143127
142423
141224
140766
139240
139063
137073
137006
134853
148887
148642
149475
148952
148788
148211
148051
147395
147062
146471
146151
145407
144889
143778
143318
142233
141502
140286
139915
138379
138145
136232
136253
135209
148886
148648
149200
148650
148530
147941
147745
147154
146813
146185
145868
145159
144686
143539
142988
142001
141291
140014
139601
138157
137726
135980
135737
134395
148901
148480
148845
148242
148186
147633
147433
146837
146560
145902
145599
144914
144432
143306
142804
141811
141159
139899
139421
137979
137604
135866
135590
133307
148064
147880
148289
147690
147720
147220
146993
146424
146224
145517
145178
144532
144084
142964
142497
141510
140897
139657
139152
137713
137416
135546
135407
133427
147599
147373
147810
147206
147271
146832
146603
146046
145893
145159
144782
144135
143747
142652
142199
141229
140642
139389
138857
137453
137053
135249
135192
133441
146956
146951
147336
146744
146854
146421
146213
145682
145565
144847
144423
143752
143429
142334
141911
140955
140364
139172
138632
137198
136834
134986
134948
132878
146682
146538
146838
146288
146407
146005
145850
145327
145199
144523
144097
143376
143119
142033
141597
140698
140075
138901
138361
136882
136612
134757
134704
132488
146334
146100
146380
145867
145965
145583
145498
144954
144793
144201
143769
143005
142786
141750
141275
140389
139775
138630
138125
136557
136316
134493
134468
132576
145493
145590
145890
145453
145550
145195
145123
144586
144410
143870
143444
142657
142447
141456
140965
140095
139425
138305
137877
136302
136033
134237
134217
132348
145435
145207
145458
145013
145142
144837
144794
144218
143975
143521
143150
142339
142089
141154
140637
139782
139116
137978
137578
136037
135743
133950
133911
131677
144931
144720
145008
144675
144786
144437
144432
143890
143611
143142
142826
142043
141725
140822
140306
139451
138800
137614
137293
135725
135471
133659
133662
131803
143890
144276
144578
144229
144438
144082
144073
143566
143282
142778
142467
141746
141394
140502
139965
139066
138506
137300
136986
135397
135171
133389
133377
131638
143968
144004
144247
144003
144087
143658
143712
143254
142960
142436
142104
141456
141034
140158
139680
138719
138156
137013
136668
135077
134860
133100
133009
130887
143906
143859
144006
143690
143812
143306
143336
142919
142615
142059
141730
141119
140679
139814
139341
138408
137809
136687
136350
134714
134548
132779
132738
131008
143621
143620
143769
143462
143522
142979
142989
142600
142274
141705
141359
140727
140340
139447
138963
138092
137481
136316
136021
134411
134236
132516
132438
130760
143710
143621
143573
143261
143292
142644
142615
142246
141916
141380
140961
140317
139988
139099
138591
137752
137159
135978
135657
134084
133923
132165
132082
130024
144098
143640
143506
143104
143018
142416
142332
141902
141553
141006
140599
139920
139550
138718
138249
137420
136824
135652
135318
133752
133608
131846
131861
130075
144403
143617
143447
142974
142773
142158
142060
141536
141200
140641
140213
139491
139095
138348
137901
137020
136482
135351
134962
133445
133294
131489
131634
129861
144623
143596
143333
142781
142539
141919
141687
141180
140859
140296
139820
139031
138662
137958
137531
136594
136098
134997
134579
133128
132972
131238
131347
129572
144923
143635
143251
142621
142284
141707
141342
140766
140501
139900
139517
138583
138152
137542
137140
136171
135670
134620
134168
132748
132637
130911
131163
129562
145167
143711
143172
142407
142003
141436
141001
140383
140075
139464
139166
138211
137704
137138
136699
135671
135250
134214
133693
132324
132270
130741
130742
129272
145420
143664
143041
142160
141702
141122
140631
139993
139648
139057
138746
137775
137320
136693
136307
135165
134712
133837
133256
131905
131816
130257
130205
128122
144742
143213
142615
141774
141295
140627
140166
139586
139135
138498
138301
137314
136817
136236
135815
134657
134220
133433
132788
131459
131320
129681
129505
127006
144037
142429
142136
141254
140850
140156
139673
139068
138584
137909
137712
136794
136308
135774
135255
134199
133718
132862
132315
131065
130871
129127
129068
127197
143313
141740
141519
140631
140214
139562
139130
138491
137992
137261
137078
136280
135655
135117
134640
133670
133227
132248
131749
130553
130255
128690
128517
126786
142279
141138
140976
139945
139435
138847
138495
137836
137360
136752
136319
135547
135058
134400
133993
133172
132624
131694
131211
129985
129631
128012
127540
125269
141161
139922
139996
139037
138515
137966
137691
137066
136571
136028
135425
134689
134312
133638
133265
132497
131856
130848
130438
129379
128827
127183
126938
124298
140231
138694
138638
137985
137602
137066
136824
136169
135665
135117
134698
133955
133393
132794
132494
131727
131144
130220
129711
128639
128031
126496
126381
123984
138225
136957
136813
136172
135978
135558
135459
134828
134360
133909
133496
132777
132278
131638
131329
130650
130109
129309
128916
127757
127314
125882
125837
123447
136534
136074
136111
135354
135239
134779
134826
134561
134224
133598
133311
132993
132778
132013
131585
130933
130498
129733
129505
128730
128395
127021
127067
125037
155174
152454
151827
150857
150753
150066
149866
149059
148869
148166
147747
146956
146327
145470
144927
143564
143152
141676
140797
139580
138907
137105
136877
131533
153518
151098
150835
149991
149956
149328
149170
148393
148249
147513
147194
146363
145794
145077
144417
143011
142701
141269
140515
139137
138731
136780
136803
133493
149222
148865
149263
148654
148736
148204
148051
147359
147197
146421
146073
145356
144853
144172
143447
142072
141712
140330
139648
138240
137948
135971
136157
133753
149262
148763
148995
148373
148470
147950
147810
147081
146938
146208
145763
145070
144566
143896
143252
141841
141446
140083
139436
138020
137458
135669
135749
133374
149070
148402
148603
148050
148141
147615
147559
146819
146600
145960
145534
144825
144355
143701
143066
141651
141274
139947
139339
137940
137405
135583
135623
132524
148165
147761
148047
147575
147689
147164
147135
146438
146169
145547
145190
144497
144016
143391
142792
141366
140982
139715
139139
137733
137255
135395
135448
132644
147846
147339
147567
147152
147273
146761
146760
146065
145753
145153
144827
144172
143705
143058
142487
141077
140670
139431
138895
137491
137044
135089
135173
132468
147206
146949
147150
146763
146867
146383
146404
145704
145348
144784
144488
143868
143426
142733
142173
140805
140388
139159
138657
137242
136802
134821
134864
131864
147029
146591
146739
146364
146468
146016
146027
145352
144985
144411
144122
143550
143152
142399
141841
140556
140108
138849
138429
137007
136519
134539
134630
131731
146695
146233
146379
145992
146075
145635
145624
144980
144633
144060
143778
143212
142854
142083
141495
140257
139806
138532
138170
136738
136270
134289
134377
131749
146176
145875
145990
145610
145685
145277
145250
144615
144295
143701
143415
142856
142521
141751
141171
139932
139560
138259
137845
136455
136016
134058
134069
131404
146246
145611
145668
145273
145328
144894
144847
144248
144010
143375
143034
142516
142207
141402
140817
139574
139240
137962
137511
136159
135790
133824
133749
130883
146030
145221
145298
144918
144957
144563
144495
143881
143679
143098
142683
142141
141858
141024
140516
139257
138891
137673
137173
135811
135513
133581
133493
130942
145025
144695
144885
144554
144630
144206
144095
143518
143352
142799
142399
141779
141501
140697
140148
138937
138518
137317
136870
135509
135212
133328
133215
130702
144456
144245
144418
144150
144268
143884
143715
143125
142988
142462
142122
141413
141125
140385
139747
138570
138180
136977
136540
135189
134896
133037
132842
130017
143954
143875
144007
143797
143944
143550
143343
142778
142642
142089
141780
141084
140766
140007
139347
138194
137816
136629
136219
134853
134545
132730
132559
130050
143360
143603
143653
143506
143652
143192
143018
142430
142273
141727
141412
140756
140419
139610
138877
137827
137455
136316
135896
134503
134215
132432
132219
129691
143095
143303
143370
143203
143361
142916
142706
142160
141905
141304
141077
140437
140018
139166
138466
137449
137073
135998
135537
134134
133840
132083
131825
129142
142957
143180
143151
142949
143014
142580
142419
141898
141602
140958
140676
140070
139685
138746
138011
137043
136682
135626
135174
133799
133501
131711
131456
128765
142810
142986
142960
142686
142670
142292
142097
141596
141277
140634
140309
139726
139344
138257
137553
136665
136342
135259
134756
133438
133107
131313
131060
128305
142668
142820
142746
142469
142383
142023
141816
141216
140915
140271
139915
139359
138914
137758
137117
136302
135925
134891
134342
133081
132748
130946
130804
128128
142637
142681
142596
142290
142107
141688
141566
140868
140502
139898
139439
138952
138512
137323
136678
135878
135517
134456
134033
132766
132277
130452
130662
128242
142954
142548
142413
142068
141845
141356
141158
140473
140039
139530
139034
138459
138042
136904
136315
135452
135027
134088
133605
132463
131934
130218
130374
128075
143712
142465
142255
141829
141535
141045
140757
140116
139676
139034
138537
137974
137564
136542
135974
135126
134581
133520
133134
132025
131511
129955
130051
127386
143504
142103
141996
141497
141155
140607
140287
139691
139280
138575
137991
137433
136994
136046
135604
134750
134160
132969
132644
131616
131114
129518
129521
126529
143018
141799
141650
141086
140789
140131
139737
139179
138759
138120
137489
136866
136551
135585
135032
134135
133691
132656
132207
131082
130726
129155
129268
126993
142370
141304
141019
140499
140254
139524
139094
138583
138127
137491
136854
136196
135938
135097
134436
133532
133082
132146
131705
130531
130358
129129
128907
127059
141894
140632
140308
139797
139573
138921
138404
137806
137397
136801
136239
135571
135313
134557
133861
132971
132599
131553
131142
130092
129792
128858
128448
126297
140779
139757
139417
138828
138692
138083
137548
136933
136569
136025
135607
134817
134461
133851
133135
132324
131955
130995
130428
129311
129199
128230
127656
125535
139507
138634
138541
137783
137649
137105
136634
136051
135623
135109
134817
134078
133667
133007
132400
131519
131109
130428
129958
128841
128763
127700
127337
125374
137304
136705
136782
136206
136209
135697
135268
134748
134329
133796
133606
132994
132581
131947
131517
130626
130279
129578
129144
128247
128174
127019
126814
125218
135639
135357
135591
135187
135367
135048
134953
134456
134337
133796
133598
133060
132697
132203
131961
131277
131060
130241
129793
128914
128790
127995
127671
126344
154422
152147
152103
151129
150979
150201
149968
149249
149017
148248
147709
147138
146337
145216
144919
143636
142874
141449
141024
139835
138761
136524
136603
131081
153606
151046
151124
150257
150129
149449
149244
148580
148387
147629
147144
146502
145764
144656
144331
143142
142507
141088
140726
139426
138671
136290
136527
131788
150771
149279
149650
148928
148851
148289
148133
147507
147313
146626
146168
145442
144745
143684
143278
142227
141581
140174
139831
138540
138025
135559
135996
132248
150050
148875
149234
148549
148607
147985
147845
147247
147058
146385
145910
145212
144567
143418
142969
142014
141301
139856
139535
138246
137667
135354
135543
132345
149170
148295
148789
148124
148244
147652
147546
146991
146788
146118
145649
144956
144352
143191
142703
141808
141199
139733
139376
138047
137574
135431
135430
132300
148016
147593
148175
147613
147737
147193
147158
146598
146409
145771
145235
144556
144051
142868
142354
141489
140998
139544
139132
137783
137410
135400
135289
132348
147304
147007
147591
147124
147243
146771
146770
146216
146027
145423
144907
144174
143739
142596
142035
141188
140677
139275
138881
137514
137154
135254
135128
132160
146384
146448
147035
146660
146775
146385
146405
145823
145678
145073
144569
143812
143387
142356
141770
140869
140397
139029
138651
137291
136972
135127
134984
131857
145654
145924
146492
146189
146329
145982
146026
145412
145298
144741
144233
143453
143036
142101
141505
140518
140103
138805
138416
137058
136803
134990
134867
131892
145015
145487
145976
145744
145899
145600
145636
145038
144922
144351
143887
143135
142669
141757
141235
140218
139807
138543
138171
136831
136600
134831
134697
132040
144379
145033
145475
145294
145509
145232
145248
144639
144528
144001
143587
142811
142348
141437
140916
139891
139466
138289
137968
136600
136375
134651
134516
131889
144369
144725
145031
144940
145112
144863
144851
144268
144110
143606
143290
142450
142019
141129
140635
139611
139095
138019
137735
136332
136120
134449
134264
131559
144432
144454
144634
144602
144815
144487
144457
143875
143714
143219
142961
142112
141699
140852
140286
139330
138826
137737
137507
136063
135829
134216
134151
131648
144129
144070
144333
144320
144427
144166
144080
143513
143304
142791
142532
141783
141346
140503
140019
139031
138612
137515
137205
135788
135557
133982
133955
131694
143678
143841
144083
144077
144136
143853
143736
143194
142984
142408
142082
141433
141041
140137
139706
138734
138288
137232
136914
135532
135253
133758
133707
131373
143439
143626
143865
143800
143775
143518
143428
142880
142651
142066
141690
141044
140753
139786
139353
138423
138012
136941
136570
135253
134925
133505
133510
131406
143080
143446
143626
143507
143480
143260
143077
142493
142319
141767
141358
140651
140373
139443
139054
138081
137691
136616
136201
134970
134585
133232
133203
131394
142925
143293
143417
143270
143193
142962
142736
142125
141995
141425
140985
140264
139979
139111
138736
137768
137294
136219
135915
134652
134261
132992
132893
130970
143029
143281
143246
143055
142965
142689
142401
141761
141620
141026
140665
139911
139573
138760
138430
137469
136947
135801
135550
134316
133849
132556
132549
130687
143328
143213
143117
142896
142737
142374
142049
141385
141222
140626
140343
139587
139163
138378
138073
137162
136484
135378
135193
133955
133494
132305
132138
130061
143330
143152
143034
142712
142491
142045
141722
141073
140831
140237
139991
139236
138735
138077
137675
136715
136114
134982
134808
133498
133051
131788
131738
129542
143329
143089
142936
142508
142242
141682
141362
140729
140456
139900
139610
138850
138328
137659
137271
136314
135671
134575
134264
132988
132750
131567
131099
129401
143440
142985
142804
142321
141962
141347
141015
140394
140137
139486
139109
138447
137871
137175
136796
135892
135302
134121
133830
132497
132274
130977
130604
129391
143722
142953
142686
142084
141677
140984
140655
140033
139680
139063
138659
137998
137440
136658
136283
135445
134816
133702
133403
132050
131840
130615
130074
128836
143776
142836
142551
141721
141300
140646
140221
139569
139231
138656
138173
137492
136954
136140
135706
134877
134349
133302
132884
131578
131314
130092
129585
127797
143750
142598
142324
141307
140790
140250
139813
139131
138752
138120
137660
137029
136424
135542
135167
134318
133799
132788
132343
131097
130788
129680
129415
128095
143256
142130
141888
140790
140276
139762
139235
138515
138136
137534
137123
136398
135741
134907
134555
133794
133335
132280
131800
130689
130174
129076
128957
128085
142644
141457
141280
140156
139778
139172
138545
137864
137463
136791
136454
135775
135108
134410
133936
133103
132775
131682
131174
130247
129744
128492
128323
127085
141765
140571
140368
139319
138921
138291
137671
137069
136626
135978
135662
134979
134346
133743
133278
132401
131933
130953
130686
129669
129165
127862
127768
126309
140869
139587
139348
138346
137899
137129
136640
136284
135876
135118
134729
134083
133691
133013
132492
131760
131257
130273
129929
128967
128630
127519
127377
126112
138731
137711
137551
136668
136328
135613
135277
134974
134579
134002
133639
132977
132613
131928
131462
130743
130378
129467
129023
128021
127904
126870
126908
125635
136781
136096
136263
135544
135380
134881
134754
134392
134273
133942
133743
133210
132780
132213
131890
131060
130892
130183
129822
128995
128835
127963
128199
127517
152912
151487
151707
151007
150986
150112
149827
149066
148862
148121
147751
147008
146452
145513
144926
143727
143238
141678
140915
139469
138791
137010
136674
132350
151408
150315
150714
150140
150162
149368
149070
148370
148202
147476
147140
146368
145843
144971
144483
143206
142853
141362
140654
139010
138557
136734
136545
132111
149069
148732
149252
148854
148922
148300
147946
147333
147186
146453
146096
145313
144831
144016
143533
142248
141856
140467
139799
138112
137687
135846
135875
132820
149173
148582
148983
148584
148590
147974
147708
147096
146946
146142
145837
145052
144530
143804
143293
141984
141534
140202
139468
137885
137398
135647
135654
133736
148892
148176
148592
148215
148261
147631
147382
146781
146675
145889
145581
144808
144261
143569
143085
141734
141304
140042
139360
137766
137413
135671
135753
134011
147857
147504
148031
147676
147803
147179
146935
146375
146269
145555
145250
144443
143880
143213
142779
141396
141000
139751
139145
137581
137328
135577
135724
134004
147275
147085
147560
147207
147421
146792
146528
146000
145872
145172
144932
144111
143520
142861
142452
141088
140709
139466
138897
137397
137074
135309
135416
133924
146689
146641
147108
146779
147042
146394
146146
145675
145481
144792
144633
143813
143184
142513
142123
140795
140457
139204
138657
137216
136936
135139
135158
133425
146178
146220
146629
146369
146639
145980
145763
145337
145109
144425
144291
143523
142865
142147
141775
140498
140172
138916
138405
137002
136760
134993
134974
133175
145765
145812
146202
146015
146241
145593
145393
144967
144731
144055
143937
143204
142553
141822
141455
140184
139880
138610
138119
136821
136519
134806
134861
133269
145003
145386
145817
145676
145819
145167
145026
144603
144388
143688
143529
142890
142267
141471
141124
139890
139571
138333
137802
136600
136306
134591
134690
133077
144887
145082
145459
145314
145404
144790
144682
144258
144056
143331
143156
142551
141950
141146
140769
139659
139271
137995
137555
136387
136048
134320
134508
132453
144610
144793
145152
144964
144936
144441
144359
143949
143751
142958
142789
142234
141667
140803
140372
139318
139011
137713
137246
136134
135849
134085
134248
132639
144044
144459
144784
144596
144591
144069
143996
143575
143401
142629
142482
141884
141379
140480
140014
138998
138627
137409
136978
135860
135607
133883
134023
132580
144150
144347
144520
144264
144232
143750
143684
143224
143049
142299
142165
141519
141048
140176
139669
138651
138280
137120
136680
135524
135316
133572
133757
132016
144179
144139
144272
144004
143895
143435
143354
142836
142674
142014
141836
141109
140641
139860
139375
138324
137902
136780
136387
135167
135036
133282
133482
132046
143759
143832
144008
143753
143562
143083
143050
142604
142338
141647
141472
140734
140281
139529
139059
138016
137539
136409
136013
134801
134755
133043
133119
131929
143502
143534
143725
143501
143247
142737
142740
142304
142013
141341
141106
140381
139901
139159
138717
137671
137262
136066
135621
134424
134397
132716
132691
131290
143570
143411
143501
143258
142978
142422
142435
141988
141661
141002
140726
140039
139513
138759
138373
137255
136881
135802
135227
134054
134027
132361
132319
131196
143647
143241
143262
143035
142710
142157
142147
141662
141288
140626
140313
139589
139102
138427
138006
136872
136501
135421
134905
133682
133645
131969
131944
130770
143659
143121
143080
142761
142478
141936
141835
141338
140948
140236
139882
139239
138675
137961
137616
136479
136106
134956
134529
133318
133200
131547
131452
130197
143734
143107
142891
142483
142230
141724
141504
140962
140594
139817
139403
138866
138322
137583
137201
136047
135733
134497
134114
132875
132606
131186
131043
129932
143998
143117
142788
142216
141967
141502
141113
140555
140199
139376
138989
138408
137893
137154
136762
135647
135310
134090
133650
132447
132024
130648
130457
129261
144370
143088
142752
142036
141656
141166
140686
140101
139759
138958
138621
138020
137387
136669
136314
135212
134874
133694
133106
131819
131535
130065
129860
128293
144513
142953
142568
141780
141360
140782
140222
139606
139279
138456
138203
137571
136946
136188
135812
134728
134307
133227
132685
131381
130971
129395
129229
127084
144597
142799
142348
141455
141016
140279
139740
139130
138752
137962
137748
137046
136422
135734
135217
134181
133724
132669
132248
130872
130439
128810
128848
127304
144288
142566
142003
140960
140488
139758
139211
138592
138233
137418
137096
136527
135943
135154
134578
133568
133077
132130
131678
130414
129863
128431
128368
126869
143944
142146
141525
140387
139855
139137
138625
138064
137616
136940
136432
135719
135309
134426
133897
133111
132514
131665
131173
129812
129300
127770
127729
125406
142950
141281
140687
139597
139081
138340
137835
137267
136764
136147
135766
135038
134579
133669
133079
132403
131991
131060
130469
129254
128854
127365
127340
125274
141655
140072
139686
138582
138162
137507
136994
136325
135858
135244
134885
134325
133810
133078
132410
131567
131107
130318
129912
128758
128479
127164
127053
124818
139153
138049
137816
136891
136690
136042
135608
135042
134606
134099
133619
133074
132767
132060
131432
130667
130230
129332
129145
128149
127866
126432
126430
124207
137107
136452
136568
135831
135728
135191
135068
134765
134489
134092
133742
133070
132924
132326
131867
131320
130897
130135
129954
129008
128872
127604
127769
126234
155326
152237
151974
150800
150618
150162
150015
149322
148877
147920
147564
147076
146301
145238
144757
143654
143060
141518
140971
139586
138863
136822
136518
132012
153145
150847
151005
149941
149840
149431
149294
148667
148257
147334
147089
146476
145773
144765
144291
143135
142621
141196
140708
139173
138641
136421
136274
130845
149128
148883
149455
148634
148711
148302
148141
147577
147204
146342
146043
145439
144818
143793
143303
142218
141652
140263
139813
138254
137755
135479
135414
131001
149386
148934
149184
148298
148427
148075
147863
147285
146900
146077
145743
145155
144625
143519
142998
141973
141388
139955
139439
137961
137422
135323
135208
131949
149492
148710
148774
147912
148072
147753
147579
146984
146612
145801
145485
144867
144423
143299
142787
141797
141200
139798
139268
137732
137310
135250
135160
132998
148506
147911
148131
147385
147610
147301
147173
146574
146217
145421
145139
144456
144092
143019
142457
141526
140911
139541
139001
137429
137147
135083
134964
132896
147773
147269
147618
146919
147152
146869
146761
146161
145873
145096
144765
144082
143753
142736
142153
141269
140620
139286
138706
137132
136904
134880
134739
132300
146911
146764
147151
146507
146730
146455
146358
145778
145543
144797
144395
143706
143439
142467
141854
141010
140347
139046
138506
136871
136665
134687
134544
131676
146465
146290
146677
146117
146315
146040
145967
145393
145199
144507
144089
143332
143075
142174
141555
140737
140092
138807
138305
136637
136459
134480
134446
131696
145989
145854
146232
145707
145889
145618
145581
145052
144870
144203
143751
142955
142723
141881
141265
140438
139805
138555
138099
136371
136284
134309
134299
131959
145212
145451
145763
145322
145523
145214
145178
144726
144545
143869
143465
142618
142362
141567
140965
140145
139566
138290
137879
136126
136069
134173
134182
131872
145241
145184
145350
144957
145173
144819
144803
144367
144192
143551
143101
142295
142012
141286
140711
139779
139287
138079
137612
135882
135866
134021
134003
131557
145030
144903
145014
144664
144881
144437
144393
143995
143822
143238
142758
141938
141653
140938
140471
139476
138912
137783
137384
135621
135619
133823
133921
131672
144552
144603
144711
144404
144557
144097
144088
143645
143421
142903
142448
141589
141280
140612
140160
139124
138615
137486
137120
135371
135398
133641
133784
131522
144786
144502
144485
144192
144268
143761
143716
143312
143081
142558
142138
141281
140925
140273
139837
138808
138293
137102
136837
135207
135154
133372
133491
130997
144892
144390
144298
143971
143990
143461
143381
142941
142713
142201
141835
141036
140602
139917
139444
138407
137939
136771
136523
134906
134919
133122
133282
131049
144705
144203
144101
143790
143712
143195
143036
142553
142376
141845
141462
140749
140336
139622
139071
138004
137580
136439
136257
134678
134554
132797
132986
130887
144751
144031
143834
143578
143453
142976
142729
142135
141992
141462
141109
140416
140025
139368
138710
137552
137140
136118
135939
134402
134255
132499
132622
130408
144640
143868
143587
143312
143197
142705
142450
141782
141646
141151
140720
139969
139658
139029
138346
137233
136776
135660
135575
134020
133830
132205
132356
130107
144245
143541
143327
143016
142928
142437
142141
141450
141314
140810
140346
139589
139301
138612
137981
136813
136420
135305
135139
133736
133405
131778
131820
129614
143816
143251
143151
142762
142610
142138
141860
141148
140959
140451
139948
139175
138941
138213
137539
136385
136016
134975
134684
133351
133038
131310
131359
129240
143715
143003
142893
142544
142293
141806
141577
140890
140559
139984
139611
138748
138473
137767
137109
136022
135539
134607
134318
132977
132601
130748
130820
128783
143528
142861
142688
142285
142001
141424
141176
140493
140176
139594
139226
138390
138009
137304
136587
135629
135155
134099
133875
132592
132096
130183
130142
128004
143388
142620
142487
142015
141704
141108
140810
140077
139725
139171
138776
137993
137590
136842
136040
135160
134796
133650
133351
132232
131555
129574
129525
127006
143002
142278
142158
141671
141327
140700
140452
139614
139255
138741
138207
137471
137075
136331
135626
134666
134187
133224
132856
131573
130921
129109
128913
126045
142604
141909
141810
141306
140866
140179
139860
139112
138801
138324
137729
136915
136520
135800
135176
134242
133619
132675
132295
130879
130340
128615
128514
126095
142335
141357
141268
140801
140326
139600
139249
138500
138188
137682
137123
136421
135954
135159
134595
133701
133029
132104
131713
130368
129776
128148
127875
125399
142188
140823
140706
140146
139693
138942
138683
137955
137543
136913
136462
135944
135319
134486
134023
132997
132356
131481
131066
129726
129104
127548
127352
124172
141639
140063
139991
139352
138954
138195
137966
137179
136790
136082
135567
135145
134510
133697
133369
132347
131612
130839
130386
129315
128700
126936
126937
124177
140483
139044
139209
138399
138152
137370
137042
136227
135866
135411
134801
134192
133646
132850
132521
131773
131051
130179
129796
128840
128327
126591
126719
124238
138111
136977
137368
136701
136654
136022
135677
134909
134623
134182
133643
133074
132584
131717
131383
130729
130185
129304
128989
128081
127805
126363
126509
124361
136767
135749
135815
135555
135750
135359
135146
134740
134455
133937
133661
133259
132977
132189
131824
131170
131011
130153
129827
128850
128746
127637
127867
126808
154597
152072
151900
151065
150823
149881
149983
149261
148900
148183
147701
147028
146374
145415
145037
143607
143146
141729
141113
139755
138923
136989
136919
132842
153284
150877
150960
150203
150014
149161
149298
148589
148250
147542
147131
146412
145789
144879
144504
143100
142716
141422
140818
139358
138687
136628
136682
131325
149585
149043
149513
148855
148761
148081
148194
147521
147152
146458
146097
145402
144834
143893
143509
142216
141676
140500
139890
138473
137870
135639
135592
130873
149767
148973
149242
148585
148456
147777
147927
147261
146898
146201
145850
145176
144622
143709
143217
141931
141396
140237
139640
138188
137451
135285
135230
130928
149717
148708
148874
148232
148169
147453
147591
146950
146593
145941
145600
144921
144395
143524
142999
141655
141208
140076
139480
138025
137346
135178
135092
131724
149113
148122
148353
147739
147689
147057
147171
146517
146191
145589
145262
144560
144046
143225
142695
141337
140906
139786
139215
137782
137123
134989
134900
131808
148655
147607
147842
147286
147283
146661
146761
146139
145805
145214
144959
144209
143708
142926
142378
141012
140616
139503
138952
137492
136849
134781
134635
131371
147911
147034
147330
146832
146870
146283
146385
145798
145440
144825
144661
143922
143369
142604
142093
140737
140316
139232
138667
137200
136644
134594
134379
130670
147039
146420
146799
146332
146443
145896
145985
145441
145078
144469
144289
143584
143072
142268
141776
140476
140026
138937
138393
136907
136417
134389
134172
130649
146125
145806
146277
145866
146049
145558
145574
145046
144699
144101
143939
143209
142746
141927
141420
140207
139728
138642
138116
136604
136206
134202
133984
130577
145243
145244
145768
145393
145660
145272
145185
144633
144353
143741
143565
142872
142425
141581
141064
139927
139442
138329
137832
136352
135991
133984
133760
130374
144760
144845
145281
144974
145277
144986
144835
144257
143987
143362
143200
142529
142084
141203
140724
139703
139128
137994
137561
136059
135778
133793
133613
130372
144006
144381
144827
144587
144897
144663
144487
143871
143629
143003
142856
142225
141790
140800
140323
139449
138852
137681
137281
135851
135586
133531
133469
130600
143207
144014
144395
144257
144523
144310
144144
143514
143301
142642
142437
141863
141524
140453
139933
139157
138561
137348
136994
135632
135424
133312
133384
130649
143012
143737
144018
143948
144211
143963
143792
143183
142951
142287
142065
141499
141179
140085