/*--------------------------------*- C++ -*----------------------------------*\
  =========                 |
  \\      /  F ield         | OpenFOAM: The Open Source CFD Toolbox
   \\    /   O peration     | Website:  https://openfoam.org
    \\  /    A nd           | Version:  13
     \\/     M anipulation  |
\*---------------------------------------------------------------------------*/
FoamFile
{
    format      ascii;
    class       volScalarField;
    location    "0";
    object      T;
}
// * * * * * * * * * * * * * * * * * * * * * * * * * * * * * * * * * * * * * //

dimensions      [0 0 0 1 0 0 0];

internalField   nonuniform List<scalar> 
521088
(
346.096
337.691
335.951
334.489
333.463
332.827
332.689
332.22
331.755
330.637
330.09
329.899
330.269
330.085
330.193
329.597
328.852
327.583
326.524
324.877
324.587
323.428
322.902
323.474
344.953
337.023
335.437
334.026
333.033
332.44
332.273
331.824
331.388
330.262
329.605
329.541
329.875
329.658
329.899
329.22
328.375
327.166
326.041
324.518
324.18
323.044
322.591
325.577
342.685
335.962
334.508
333.198
332.314
331.779
331.605
331.186
330.789
329.702
329.023
328.925
329.259
329.163
329.437
328.669
327.868
326.705
325.467
324.004
323.807
322.656
322.328
325.724
342.746
335.954
334.32
333.027
332.135
331.611
331.423
330.996
330.669
329.546
328.817
328.803
329.066
328.994
329.25
328.503
327.714
326.562
325.287
323.896
323.58
322.569
322.057
325.334
342.692
335.711
334.062
332.76
331.947
331.458
331.261
330.769
330.533
329.415
328.656
328.721
328.948
328.833
329.158
328.317
327.578
326.51
325.194
323.775
323.536
322.522
322.023
324.818
342.147
335.43
333.643
332.435
331.615
331.111
330.946
330.54
330.254
329.202
328.395
328.428
328.715
328.549
328.954
328.158
327.315
326.366
325.08
323.555
323.302
322.402
321.972
324.85
341.857
335.056
333.354
332.17
331.319
330.849
330.699
330.325
329.991
328.994
328.27
328.235
328.474
328.315
328.786
328.003
327.118
326.153
324.996
323.466
323.062
322.327
321.894
324.88
341.416
334.686
332.956
331.82
331.03
330.57
330.436
330.114
329.704
328.666
328.099
328.05
328.23
328.054
328.575
327.821
326.888
325.915
324.847
323.306
322.952
322.219
321.748
324.296
341.302
334.392
332.668
331.587
330.788
330.371
330.219
329.863
329.495
328.512
327.953
327.927
328.047
327.918
328.363
327.646
326.692
325.709
324.647
323.081
322.829
322.126
321.658
324.112
340.927
333.907
332.279
331.281
330.52
330.122
329.916
329.517
329.216
328.276
327.708
327.687
327.788
327.742
328.119
327.369
326.505
325.533
324.357
322.85
322.638
321.95
321.51
324.204
340.352
333.49
332.046
331.025
330.283
329.928
329.716
329.272
328.984
328.108
327.55
327.515
327.594
327.551
327.967
327.178
326.317
325.376
324.115
322.636
322.528
321.771
321.336
323.936
340.368
333.24
331.781
330.763
330.01
329.615
329.466
329.003
328.673
327.813
327.298
327.304
327.409
327.253
327.743
326.991
326.115
325.196
323.812
322.335
322.365
321.636
321.115
323.742
339.928
332.861
331.465
330.499
329.784
329.406
329.27
328.849
328.503
327.568
327.104
327.147
327.299
327.076
327.534
326.868
325.942
324.948
323.608
322.073
322.173
321.448
320.995
323.823
339.384
332.574
331.19
330.165
329.5
329.121
328.989
328.598
328.285
327.242
326.799
326.81
327.132
326.825
327.209
326.668
325.82
324.697
323.363
321.886
321.931
321.311
320.72
323.682
339.387
332.426
331.025
330.022
329.308
328.887
328.78
328.453
328.072
327.001
326.562
326.556
327.029
326.58
326.878
326.584
325.668
324.512
323.042
321.764
321.719
321.051
320.603
323.425
339.234
332.246
330.836
329.833
329.053
328.678
328.508
328.152
327.716
326.678
326.27
326.173
326.849
326.389
326.451
326.372
325.426
324.266
322.8
321.576
321.521
320.824
320.352
323.508
339.034
332.121
330.657
329.746
328.95
328.542
328.28
327.933
327.551
326.48
326.096
325.902
326.64
326.259
326.169
326.2
325.252
324.082
322.596
321.439
321.429
320.609
320.169
323.374
339.146
332.139
330.526
329.529
328.687
328.304
328.018
327.63
327.323
326.179
325.766
325.595
326.154
325.951
325.891
325.868
325.051
323.84
322.344
321.329
321.207
320.405
319.868
323.018
339.347
332.128
330.501
329.396
328.494
328.22
327.933
327.425
327.119
326.003
325.561
325.46
325.801
325.697
325.749
325.611
324.916
323.739
322.092
321.179
321.029
320.183
319.775
323.063
339.512
332.105
330.423
329.25
328.298
327.965
327.683
327.142
326.763
325.733
325.239
325.198
325.455
325.367
325.461
325.22
324.611
323.519
321.802
320.868
320.723
319.965
319.529
322.84
339.66
332.124
330.375
329.182
328.231
327.826
327.467
326.966
326.644
325.581
325.027
324.984
325.247
325.106
325.199
325.045
324.421
323.367
321.591
320.604
320.495
319.877
319.41
322.768
339.81
332.168
330.274
328.997
328.039
327.586
327.145
326.619
326.363
325.21
324.706
324.616
324.897
324.778
324.777
324.706
324.091
323.019
321.303
320.326
320.14
319.687
319.179
322.707
339.921
332.237
330.241
328.829
327.941
327.487
327.022
326.521
326.21
325.012
324.538
324.394
324.704
324.577
324.487
324.497
323.889
322.877
321.079
320.032
319.885
319.499
318.982
322.676
339.799
332.136
330.039
328.525
327.671
327.131
326.674
326.213
325.788
324.631
324.208
324.037
324.292
324.223
324.015
324.026
323.499
322.588
320.906
319.636
319.378
319.152
318.389
321.77
339.584
331.942
329.852
328.368
327.54
326.909
326.446
326.05
325.603
324.362
323.981
323.893
323.997
324.037
323.734
323.743
323.261
322.401
320.817
319.427
319.142
318.781
317.94
321.274
338.846
331.305
329.441
327.926
327.13
326.403
325.941
325.516
325.047
323.995
323.416
323.454
323.497
323.507
323.258
323.174
322.594
321.827
320.596
319.146
318.638
318.351
317.512
321.315
338.71
331.076
329.283
327.739
326.875
326.178
325.731
325.271
324.813
323.838
323.197
323.243
323.237
323.186
323.012
322.939
322.318
321.559
320.369
319.001
318.421
318.168
317.148
321.18
337.692
330.41
328.742
327.161
326.094
325.434
325.056
324.563
324.058
323.361
322.655
322.518
322.658
322.506
322.362
322.342
321.552
320.89
319.625
318.51
317.83
317.534
316.287
319.991
337.541
330.033
328.441
326.867
325.788
325.14
324.77
324.284
323.77
323.102
322.409
322.274
322.419
322.248
322.111
322.061
321.222
320.623
319.385
318.261
317.523
317.237
316.042
319.44
336.255
328.911
327.156
325.774
324.712
324.078
323.757
323.162
322.723
321.981
321.4
321.393
321.571
321.335
321.125
321.148
320.241
319.769
318.534
317.385
316.583
316.298
315.272
318.917
336.643
328.313
326.726
325.324
324.341
323.724
323.479
322.881
322.462
321.703
321.075
321.17
321.47
321.208
320.962
320.977
320.046
319.583
318.408
317.309
316.517
316.27
315.209
319.204
331.764
324.333
322.865
321.468
320.902
320.332
320.193
319.754
319.249
318.617
318.077
318.145
318.638
318.621
318.385
318.281
317.485
316.968
315.798
314.857
314.248
314.146
313.155
317.366
346.697
337.982
335.957
334.475
333.59
332.978
332.708
332.085
331.734
330.799
330.202
330.05
330.457
330.145
330.152
329.586
328.931
327.467
326.436
324.63
324.484
323.544
323
323.062
345.488
337.118
335.388
333.998
333.15
332.589
332.285
331.712
331.325
330.341
329.702
329.696
330.109
329.777
329.759
329.191
328.441
327.035
325.996
324.301
324.087
323.138
322.698
324.796
342.997
335.794
334.475
333.212
332.404
331.907
331.618
331.078
330.665
329.677
329.102
329.113
329.573
329.309
329.235
328.598
327.885
326.572
325.521
323.783
323.733
322.71
322.489
325.047
343.098
335.686
334.247
333.043
332.191
331.653
331.465
330.969
330.47
329.434
328.916
328.915
329.395
329.122
329.1
328.452
327.689
326.516
325.346
323.645
323.44
322.619
322.205
324.758
342.823
335.404
334.008
332.841
331.94
331.443
331.301
330.802
330.326
329.208
328.724
328.812
329.271
328.961
329.009
328.322
327.57
326.472
325.224
323.582
323.406
322.594
322.143
324.428
342.278
334.991
333.586
332.452
331.593
331.128
331.053
330.546
330.055
328.941
328.37
328.537
329.019
328.713
328.843
328.068
327.288
326.357
325.033
323.484
323.331
322.491
322.056
324.501
341.966
334.648
333.274
332.141
331.306
330.9
330.815
330.327
329.832
328.72
328.182
328.254
328.8
328.536
328.754
327.899
326.997
326.165
324.89
323.328
323.177
322.266
321.853
324.329
341.526
334.313
332.926
331.797
331.013
330.63
330.544
330.091
329.646
328.473
327.93
327.979
328.495
328.321
328.579
327.763
326.811
325.921
324.685
323.173
323.014
322.085
321.651
324.002
341.389
334.065
332.687
331.558
330.795
330.41
330.289
329.894
329.459
328.301
327.728
327.778
328.307
328.214
328.407
327.628
326.63
325.68
324.526
323.025
322.835
321.946
321.565
324.021
341.128
333.76
332.358
331.24
330.463
330.147
330.016
329.656
329.234
328.042
327.497
327.479
327.964
328.041
328.169
327.361
326.468
325.514
324.278
322.8
322.635
321.795
321.406
324.078
340.81
333.56
332.113
330.978
330.225
329.94
329.798
329.431
329.075
327.894
327.302
327.266
327.709
327.883
328.037
327.166
326.341
325.375
323.979
322.555
322.511
321.706
321.237
323.87
340.832
333.416
331.851
330.722
329.939
329.657
329.592
329.124
328.786
327.644
327.07
327.055
327.492
327.702
327.829
326.899
326.085
325.204
323.703
322.221
322.315
321.575
321.052
323.607
340.599
333.13
331.587
330.481
329.723
329.43
329.364
328.928
328.54
327.457
326.964
326.937
327.272
327.462
327.685
326.8
325.887
324.934
323.522
321.978
322.085
321.4
320.93
323.683
339.856
332.834
331.324
330.235
329.48
329.199
329.046
328.555
328.243
327.149
326.751
326.714
326.985
327.237
327.473
326.561
325.708
324.618
323.302
321.85
321.811
321.218
320.698
323.482
339.443
332.496
331.034
330.055
329.26
328.985
328.897
328.342
328.012
326.931
326.579
326.596
326.812
326.921
327.231
326.388
325.551
324.466
322.997
321.689
321.62
320.983
320.536
323.123
339.139
332.345
330.775
329.815
329.017
328.651
328.582
328.095
327.708
326.63
326.295
326.334
326.533
326.565
326.967
326.158
325.295
324.247
322.746
321.481
321.474
320.73
320.217
323.067
338.757
332.189
330.633
329.632
328.906
328.48
328.378
327.989
327.546
326.406
326.067
326.115
326.304
326.238
326.697
326.035
325.079
324.073
322.557
321.276
321.372
320.548
320.01
322.912
338.593
332.031
330.539
329.446
328.658
328.223
328.053
327.814
327.352
326.139
325.692
325.787
326.132
325.841
326.266
325.781
324.842
323.859
322.298
321.078
321.056
320.304
319.641
322.465
338.578
332.003
330.488
329.4
328.469
328.085
327.841
327.601
327.258
326.053
325.502
325.411
326.019
325.684
325.954
325.566
324.704
323.701
322.016
320.908
320.805
320.132
319.44
322.243
338.588
331.996
330.357
329.232
328.268
327.905
327.628
327.18
326.977
325.817
325.237
325.065
325.595
325.362
325.511
325.263
324.428
323.519
321.706
320.673
320.446
319.83
319.121
321.951
338.612
332.03
330.265
329.134
328.205
327.798
327.557
327.02
326.765
325.716
324.951
324.812
325.407
325.082
325.186
325.143
324.268
323.385
321.535
320.414
320.193
319.635
319.063
321.985
338.77
332.06
330.139
328.916
328.036
327.517
327.272
326.783
326.415
325.423
324.643
324.374
325.024
324.79
324.754
324.774
324.018
323.111
321.269
320.179
319.812
319.34
318.853
322.124
338.976
332.179
330.079
328.84
327.917
327.409
327.073
326.661
326.209
325.118
324.501
324.153
324.665
324.6
324.562
324.566
323.825
322.92
321.052
319.884
319.631
319.259
318.661
322.121
339.452
332.088
329.932
328.606
327.62
327.087
326.701
326.249
325.902
324.779
324.136
323.826
324.139
324.109
324.147
324.176
323.476
322.541
320.714
319.503
319.279
319.052
318.208
321.562
339.448
331.953
329.834
328.481
327.48
326.899
326.464
326.055
325.74
324.653
323.961
323.644
323.93
323.848
323.8
323.869
323.276
322.369
320.584
319.333
319.175
318.648
317.778
321.102
338.912
331.496
329.469
328.073
327.124
326.415
325.959
325.52
325.205
324.26
323.522
323.18
323.486
323.495
323.29
323.27
322.659
321.93
320.241
319.126
318.83
318.32
317.346
321.173
338.868
331.249
329.252
327.846
326.908
326.2
325.734
325.275
324.917
323.996
323.319
322.979
323.174
323.304
323.061
322.936
322.341
321.617
320.061
319.025
318.644
318.242
317.103
321.098
337.871
330.447
328.616
327.155
326.162
325.536
325.103
324.578
324.158
323.278
322.706
322.441
322.528
322.55
322.478
322.325
321.766
321.127
319.562
318.522
317.989
317.908
316.403
320.111
337.689
330.028
328.325
326.852
325.826
325.209
324.828
324.316
323.876
322.973
322.424
322.223
322.303
322.238
322.228
322.071
321.377
320.871
319.384
318.242
317.729
317.639
316.048
319.437
335.682
328.655
327.097
325.709
324.724
324.095
323.843
323.367
322.842
321.911
321.374
321.325
321.51
321.283
321.439
321.214
320.319
319.952
318.553
317.57
317.034
316.857
315.44
318.988
335.951
327.831
326.518
325.252
324.342
323.762
323.529
323.089
322.615
321.658
321.083
321.108
321.353
321.142
321.34
321.131
320.216
319.825
318.401
317.477
316.947
316.793
315.38
319.276
330.621
323.798
322.467
321.28
320.81
320.312
320.204
319.766
319.5
318.693
318.079
318.16
318.627
318.507
318.513
318.525
317.703
317.206
315.842
315.052
314.357
314.332
313.15
317.207
346.495
337.708
336.024
334.404
333.574
332.903
332.617
332.062
331.752
330.849
330.097
329.995
330.362
329.914
330.047
329.635
328.734
327.51
326.417
324.672
324.385
323.287
322.745
323.739
345.744
337.091
335.51
333.93
333.112
332.557
332.246
331.693
331.365
330.451
329.739
329.644
330.009
329.565
329.641
329.281
328.318
326.998
325.965
324.323
324.026
322.883
322.448
324.108
343.979
335.972
334.57
333.105
332.319
331.844
331.6
331.072
330.734
329.814
329.158
329.109
329.437
328.965
328.957
328.717
327.864
326.524
325.475
323.844
323.7
322.453
322.269
324.452
343.384
335.673
334.222
332.83
332.166
331.662
331.382
330.928
330.503
329.608
329.004
328.976
329.321
328.793
328.772
328.514
327.71
326.395
325.266
323.654
323.454
322.351
321.969
324.496
342.668
335.279
333.985
332.581
331.902
331.491
331.201
330.783
330.352
329.424
328.867
328.805
329.176
328.695
328.682
328.333
327.654
326.365
325.142
323.555
323.35
322.36
321.942
324.479
341.95
334.786
333.503
332.275
331.607
331.147
330.946
330.488
330.082
329.145
328.636
328.571
328.998
328.527
328.492
328.062
327.475
326.251
325.01
323.433
323.232
322.331
321.892
324.417
341.462
334.447
333.164
332.008
331.351
330.92
330.708
330.25
329.904
328.877
328.411
328.395
328.849
328.414
328.344
327.799
327.253
326.155
324.85
323.279
323.111
322.233
321.789
324.242
340.868
334.092
332.794
331.702
331.035
330.605
330.465
329.962
329.61
328.689
328.117
328.116
328.626
328.253
328.159
327.584
326.921
326.009
324.706
323.132
323.008
322.149
321.67
323.969
340.444
333.844
332.487
331.456
330.811
330.365
330.218
329.83
329.379
328.417
327.914
327.844
328.467
328.093
328.023
327.498
326.706
325.828
324.565
322.973
322.866
322.065
321.569
323.999
340.103
333.582
332.216
331.149
330.487
330.12
329.92
329.577
329.233
328.09
327.601
327.57
328.264
327.948
327.811
327.379
326.502
325.6
324.435
322.771
322.674
321.945
321.461
324.06
339.773
333.425
331.939
330.924
330.171
329.876
329.791
329.387
329.017
327.88
327.358
327.335
328.087
327.863
327.679
327.265
326.334
325.323
324.333
322.604
322.514
321.841
321.322
323.864
339.824
333.373
331.664
330.708
330.015
329.568
329.487
329.132
328.769
327.58
327.038
327.041
327.792
327.769
327.564
327.062
326.212
325.068
324.018
322.502
322.328
321.661
321.131
323.596
339.907
333.251
331.508
330.493
329.856
329.415
329.275
328.927
328.609
327.39
326.778
326.845
327.501
327.535
327.527
326.892
326.144
324.963
323.684
322.367
322.227
321.468
321.041
323.636
339.776
332.989
331.281
330.311
329.555
329.247
329.107
328.641
328.261
327.144
326.531
326.523
327.13
327.258
327.445
326.66
325.906
324.899
323.4
322.088
322.114
321.317
320.831
323.541
339.449
332.881
331.134
330.154
329.405
329.073
329.001
328.487
328.104
326.969
326.418
326.328
326.854
327.024
327.233
326.484
325.7
324.796
323.299
321.773
321.997
321.23
320.604
323.274
339.341
332.72
331.015
329.96
329.067
328.789
328.721
328.153
327.869
326.683
326.235
326.147
326.499
326.666
327.005
326.249
325.483
324.495
323.036
321.622
321.732
321.093
320.402
323.214
339.01
332.515
330.874
329.845
328.896
328.601
328.569
327.955
327.72
326.545
326.037
326.043
326.28
326.415
326.825
326.027
325.281
324.338
322.786
321.391
321.491
321.029
320.228
323.232
338.907
332.404
330.691
329.664
328.713
328.344
328.29
327.688
327.364
326.17
325.668
325.809
326.114
326.063
326.529
325.741
324.965
324.143
322.553
321.046
321.055
320.814
319.968
322.769
338.981
332.378
330.606
329.568
328.587
328.183
328.104
327.528
327.186
325.964
325.409
325.597
326.017
325.845
326.341
325.629
324.791
323.96
322.367
320.862
320.748
320.646
319.792
322.746
339.046
332.305
330.485
329.35
328.369
327.884
327.787
327.257
326.932
325.699
325.112
325.118
325.729
325.536
325.869
325.359
324.536
323.639
322.037
320.655
320.397
320.352
319.417
322.301
338.939
332.2
330.418
329.166
328.252
327.728
327.555
327.139
326.836
325.601
324.918
324.881
325.544
325.322
325.509
325.207
324.412
323.45
321.84
320.491
320.147
320.134
319.239
322.12
338.915
332.057
330.238
328.963
327.995
327.464
327.189
326.817
326.637
325.349
324.538
324.488
325.112
324.896
324.945
324.832
324.076
323.131
321.527
320.104
319.773
319.693
318.747
322.165
339.035
331.959
330.156
328.889
327.891
327.3
327.014
326.629
326.439
325.223
324.348
324.209
324.863
324.67
324.594
324.541
323.873
322.941
321.392
319.971
319.524
319.371
318.482
322.124
339.174
331.784
329.949
328.67
327.616
327.029
326.651
326.197
325.915
324.854
324.025
323.788
324.454
324.282
324.111
324.035
323.362
322.483
321.017
319.803
319.169
318.949
318.071
321.634
339.228
331.665
329.824
328.479
327.4
326.905
326.527
326.015
325.709
324.694
323.887
323.614
324.209
324.049
323.951
323.766
323.113
322.172
320.598
319.687
319
318.615
317.729
321.065
339.088
331.276
329.445
328.036
326.974
326.51
326.145
325.553
325.137
324.189
323.498
323.171
323.615
323.498
323.478
323.357
322.64
321.761
320.073
319.21
318.611
318.215
317.447
321.133
338.937
331.049
329.251
327.837
326.808
326.296
325.912
325.336
324.88
323.957
323.286
322.954
323.363
323.264
323.154
323.048
322.425
321.58
319.91
318.967
318.358
318.022
317.149
321.113
338.194
330.407
328.641
327.204
326.247
325.625
325.203
324.652
324.164
323.225
322.611
322.399
322.663
322.665
322.566
322.317
321.746
321.043
319.512
318.456
317.846
317.58
316.568
320.411
337.947
330.089
328.357
326.891
325.941
325.286
324.896
324.383
323.905
322.885
322.256
322.135
322.41
322.404
322.341
322.041
321.37
320.719
319.275
318.203
317.662
317.488
316.342
320.095
336.21
328.862
327.239
325.712
324.73
324.112
323.812
323.394
322.942
321.923
321.254
321.219
321.51
321.499
321.591
321.224
320.395
319.765
318.344
317.446
317.046
317.027
315.772
320.149
336.443
328.041
326.715
325.229
324.32
323.764
323.496
323.06
322.646
321.662
321.075
321.061
321.293
321.3
321.467
321.088
320.231
319.652
318.178
317.4
317.011
316.982
315.814
320.509
331.171
323.775
322.706
321.48
320.801
320.392
320.277
319.712
319.44
318.58
318.184
318.392
318.536
318.479
318.741
318.472
317.631
317.261
315.999
315.137
314.499
314.619
313.689
318.836
345.332
337.39
335.824
334.366
333.657
332.903
332.643
332.176
331.869
330.824
330.073
329.901
330.256
329.949
330.271
329.621
328.796
327.696
326.463
324.592
324.231
323.281
322.6
323.927
344.628
336.851
335.361
333.946
333.223
332.512
332.252
331.79
331.49
330.437
329.698
329.533
329.883
329.548
329.802
329.28
328.326
327.229
326.051
324.25
323.825
322.828
322.305
323.605
343.132
335.891
334.472
333.123
332.417
331.792
331.615
331.204
330.898
329.845
329.125
328.979
329.264
328.924
329.127
328.761
327.786
326.691
325.612
323.819
323.449
322.38
321.99
324.09
343.176
335.784
334.335
332.95
332.234
331.631
331.408
330.942
330.706
329.696
328.949
328.862
329.117
328.687
328.924
328.595
327.603
326.431
325.323
323.72
323.383
322.31
321.98
324.637
342.88
335.544
334.095
332.711
332.026
331.488
331.283
330.711
330.466
329.588
328.837
328.71
329.003
328.547
328.77
328.446
327.504
326.321
325.1
323.629
323.421
322.324
322.03
324.824
342.166
335.052
333.699
332.331
331.73
331.22
330.979
330.458
330.107
329.316
328.649
328.557
328.752
328.311
328.501
328.229
327.368
326.165
324.9
323.405
323.393
322.291
321.994
324.805
341.81
334.85
333.433
332.102
331.489
331.039
330.786
330.293
329.881
328.994
328.43
328.4
328.666
328.107
328.24
328.057
327.265
326.05
324.708
323.15
323.25
322.224
321.849
324.777
341.321
334.463
333.049
331.846
331.212
330.704
330.493
330.077
329.666
328.722
328.166
328.144
328.565
327.983
327.932
327.873
327.125
325.906
324.55
322.954
323.059
322.168
321.71
324.395
341.012
334.27
332.777
331.62
330.984
330.483
330.25
329.872
329.461
328.542
327.959
327.946
328.46
327.919
327.767
327.704
326.956
325.716
324.456
322.777
322.891
322.047
321.585
324.415
340.69
333.933
332.451
331.367
330.699
330.167
329.972
329.586
329.193
328.245
327.648
327.692
328.296
327.82
327.634
327.466
326.756
325.578
324.297
322.623
322.66
321.91
321.516
324.497
340.043
333.659
332.188
331.09
330.455
329.993
329.784
329.427
328.973
328.015
327.421
327.442
328.156
327.672
327.495
327.299
326.611
325.401
324.208
322.572
322.44
321.732
321.441
324.283
340.068
333.466
331.933
330.814
330.1
329.777
329.533
329.215
328.684
327.646
327.243
327.145
327.829
327.511
327.338
327.047
326.417
325.168
324.041
322.539
322.325
321.528
321.302
324.112
339.744
333.142
331.662
330.577
329.85
329.532
329.404
329.076
328.462
327.369
327.08
326.967
327.566
327.383
327.218
326.797
326.193
324.949
323.798
322.473
322.281
321.38
321.151
324.23
339.489
332.853
331.366
330.258
329.614
329.303
329.176
328.785
328.166
327.058
326.802
326.695
327.263
327.099
327.036
326.565
325.868
324.787
323.486
322.284
322.155
321.252
320.973
324.144
339.539
332.718
331.117
330.106
329.458
329.117
328.971
328.596
328.044
326.838
326.575
326.493
327.052
326.929
326.902
326.394
325.665
324.637
323.239
321.971
322.048
321.163
320.81
324.019
339.533
332.512
330.91
329.933
329.235
328.8
328.679
328.338
327.785
326.515
326.22
326.233
326.731
326.678
326.72
326.158
325.397
324.358
322.933
321.72
321.791
321.062
320.655
324.125
339.239
332.317
330.727
329.815
329.021
328.601
328.568
328.232
327.619
326.34
325.987
326.074
326.492
326.407
326.623
326.003
325.259
324.246
322.609
321.491
321.589
320.989
320.51
324.09
339.148
332.121
330.504
329.611
328.755
328.265
328.325
327.876
327.299
326.127
325.681
325.827
326.19
326.018
326.471
325.747
324.972
323.975
322.311
321.165
321.231
320.827
320.273
323.919
339.196
332.059
330.411
329.445
328.589
328.136
328.143
327.667
327.125
325.915
325.497
325.676
326.01
325.736
326.263
325.621
324.789
323.856
322.122
320.99
320.974
320.63
320.103
323.886
339.136
331.924
330.263
329.185
328.388
327.975
327.79
327.318
326.839
325.575
325.184
325.371
325.638
325.375
325.851
325.323
324.475
323.528
321.85
320.7
320.668
320.357
319.757
323.338
339.139
331.845
330.192
329.013
328.241
327.884
327.586
327.128
326.724
325.425
324.999
325.143
325.424
325.246
325.596
325.114
324.35
323.283
321.697
320.47
320.396
320.147
319.556
323.07
339.206
331.792
330.062
328.839
327.948
327.625
327.279
326.727
326.425
325.158
324.6
324.748
325.099
324.965
325.148
324.73
324.01
322.888
321.393
320.171
319.882
319.802
319.176
322.811
339.34
331.791
330.045
328.784
327.792
327.401
327.101
326.494
326.252
325.04
324.39
324.567
324.88
324.731
324.923
324.476
323.794
322.682
321.227
320.048
319.615
319.423
318.819
322.645
339.461
331.727
329.94
328.639
327.531
327.083
326.744
326.115
325.836
324.686
323.891
324.202
324.542
324.292
324.441
324.083
323.256
322.28
320.903
319.719
319.132
318.978
318.159
321.709
339.548
331.662
329.862
328.539
327.417
326.898
326.558
325.973
325.646
324.526
323.662
323.898
324.391
324.064
324.145
323.833
322.975
322.078
320.741
319.586
318.927
318.65
317.81
321.222
339.5
331.456
329.619
328.172
327.036
326.458
326.106
325.59
325.166
324.047
323.174
323.358
323.897
323.562
323.517
323.327
322.491
321.624
320.218
319.086
318.524
318.22
317.425
321.199
339.386
331.344
329.501
327.994
326.792
326.275
325.903
325.424
324.969
323.813
322.94
323.056
323.671
323.241
323.163
323.104
322.299
321.443
320.039
318.786
318.198
318.04
317.175
320.977
338.799
330.863
329.029
327.429
326.243
325.685
325.286
324.828
324.305
323.18
322.381
322.404
322.892
322.59
322.459
322.393
321.753
320.875
319.432
318.287
317.672
317.41
316.512
320.032
338.441
330.503
328.743
327.157
325.996
325.434
324.983
324.507
324.013
322.894
322.141
322.18
322.624
322.385
322.247
322.066
321.503
320.536
319.145
318.144
317.529
317.245
316.268
320.093
336.564
329.32
327.571
326.065
325.044
324.397
323.946
323.397
323.003
321.911
321.248
321.27
321.59
321.598
321.523
321.231
320.484
319.644
318.334
317.492
316.978
316.672
315.798
319.694
336.855
328.65
327.071
325.621
324.633
324.047
323.633
323.116
322.726
321.661
321.04
321.092
321.383
321.413
321.425
321.121
320.316
319.552
318.247
317.41
316.89
316.615
315.838
319.922
331.737
324.451
322.994
321.713
321.003
320.57
320.274
319.752
319.541
318.602
318.244
318.378
318.478
318.54
318.793
318.59
317.565
317.108
315.989
315.121
314.489
314.499
313.711
318.263
346.506
338.013
336.159
334.518
333.57
332.925
332.701
332.218
331.841
330.742
330.139
329.966
330.293
330.007
330.157
329.545
328.917
327.645
326.411
324.784
324.479
323.382
322.773
324.534
345.255
337.209
335.579
334.047
333.155
332.539
332.286
331.807
331.461
330.336
329.695
329.605
329.937
329.61
329.767
329.18
328.444
327.228
325.998
324.399
324.057
322.948
322.514
323.469
342.902
335.951
334.635
333.222
332.45
331.885
331.614
331.181
330.854
329.727
329.156
329.013
329.345
329.127
329.273
328.612
327.853
326.75
325.464
323.842
323.615
322.451
322.031
323.675
343.069
335.888
334.408
332.975
332.278
331.732
331.43
330.966
330.663
329.539
328.894
328.857
329.159
328.916
329.158
328.465
327.587
326.551
325.2
323.606
323.398
322.37
321.947
324.2
342.974
335.623
334.095
332.714
332.067
331.565
331.317
330.786
330.476
329.358
328.727
328.741
328.989
328.776
329.087
328.39
327.402
326.428
325.091
323.464
323.359
322.336
321.889
324.886
342.441
335.123
333.726
332.374
331.749
331.221
330.978
330.528
330.227
329.1
328.47
328.545
328.691
328.455
328.891
328.25
327.2
326.229
324.909
323.298
323.297
322.271
321.769
324.817
341.932
334.726
333.371
332.086
331.499
331.026
330.764
330.247
329.996
328.924
328.253
328.359
328.557
328.168
328.697
328.1
327.014
326.058
324.718
323.057
323.145
322.197
321.661
324.411
341.342
334.296
333.025
331.794
331.209
330.753
330.471
329.986
329.72
328.665
328.051
328.146
328.381
327.982
328.452
327.915
326.882
325.884
324.565
322.916
322.965
322.091
321.566
324.087
341.187
334.011
332.742
331.554
330.974
330.515
330.224
329.783
329.537
328.493
327.865
327.94
328.247
327.894
328.275
327.757
326.776
325.663
324.391
322.801
322.833
321.958
321.544
324.136
340.756
333.677
332.375
331.237
330.676
330.285
329.963
329.436
329.214
328.229
327.65
327.663
328.004
327.751
328.034
327.566
326.588
325.452
324.206
322.66
322.679
321.857
321.475
324.318
340.221
333.326
332.079
331.046
330.494
330.03
329.775
329.253
328.985
328.051
327.461
327.43
327.821
327.606
327.762
327.436
326.536
325.243
324.068
322.57
322.531
321.701
321.33
324.159
340.268
333.132
331.827
330.726
330.181
329.789
329.534
329.003
328.66
327.782
327.156
327.1
327.57
327.371
327.502
327.23
326.406
325.062
323.871
322.483
322.366
321.573
321.225
324.117
339.906
332.857
331.58
330.593
329.984
329.552
329.361
328.872
328.405
327.521
326.998
326.922
327.432
327.192
327.28
327.021
326.191
324.903
323.636
322.289
322.304
321.465
321.169
324.226
339.702
332.668
331.364
330.382
329.706
329.25
329.07
328.677
328.152
327.147
326.719
326.689
327.154
326.94
327.016
326.756
325.915
324.741
323.426
322.018
322.131
321.289
321.024
324.153
339.799
332.618
331.242
330.226
329.481
329.055
328.881
328.554
328.051
326.912
326.598
326.512
326.931
326.746
326.893
326.563
325.728
324.569
323.107
321.85
321.989
321.106
320.876
323.956
339.813
332.544
331.09
329.973
329.249
328.844
328.612
328.253
327.757
326.636
326.32
326.26
326.696
326.554
326.667
326.204
325.431
324.402
322.885
321.64
321.717
320.893
320.75
323.971
339.769
332.458
330.917
329.843
329.106
328.751
328.454
328.08
327.555
326.361
326.112
326.09
326.514
326.447
326.575
326.005
325.178
324.296
322.722
321.456
321.517
320.735
320.545
323.982
339.75
332.341
330.647
329.661
328.903
328.468
328.219
327.785
327.231
326.041
325.853
325.778
326.162
326.102
326.325
325.772
324.857
323.899
322.386
321.176
321.249
320.552
320.312
323.516
339.717
332.238
330.503
329.5
328.792
328.302
328.06
327.628
327.085
325.877
325.607
325.567
325.985
325.871
326.087
325.669
324.736
323.753
322.113
320.972
320.966
320.404
320.016
323.421
339.303
332.018
330.274
329.295
328.569
328.044
327.792
327.354
326.799
325.547
325.198
325.254
325.704
325.561
325.685
325.354
324.456
323.541
321.822
320.692
320.677
320.14
319.624
323.068
339.204
331.863
330.179
329.22
328.413
327.799
327.678
327.245
326.625
325.34
325.023
325.065
325.359
325.41
325.528
325.103
324.268
323.336
321.688
320.533
320.471
319.981
319.482
322.696
339.132
331.746
330.069
329.087
328.14
327.5
327.36
326.925
326.3
325.052
324.638
324.76
324.97
325.002
325.189
324.755
323.831
322.817
321.491
320.298
319.939
319.501
319.07
322.268
339.144
331.759
330.022
328.979
327.888
327.36
327.179
326.661
326.085
324.95
324.482
324.638
324.789
324.773
324.954
324.487
323.623
322.58
321.35
320.175
319.71
319.163
318.589
321.874
338.954
331.729
329.892
328.681
327.587
327.097
326.878
326.229
325.683
324.671
323.988
324.27
324.391
324.271
324.525
324.06
323.174
322.233
320.917
319.812
319.292
318.8
317.935
321.088
338.906
331.667
329.811
328.551
327.444
326.896
326.684
326.025
325.503
324.539
323.71
324.039
324.136
323.946
324.328
323.902
322.925
322.032
320.653
319.436
318.946
318.607
317.644
320.454
338.52
331.435
329.553
328.183
327.06
326.45
326.127
325.538
325.093
324.07
323.22
323.539
323.72
323.394
323.64
323.51
322.427
321.471
320.235
318.868
318.405
318.046
317.154
320.362
338.488
331.283
329.38
327.988
326.889
326.257
325.89
325.35
324.91
323.774
322.93
323.32
323.549
323.134
323.327
323.24
322.169
321.222
320.049
318.683
318.083
317.765
316.831
320.015
338.208
330.753
328.85